+ 0.5 0 1 cbr 500 ------- 0 0.0 5.0 0 0
- 0.5 0 1 cbr 500 ------- 0 0.0 5.0 0 0
r 0.523333 0 1 cbr 500 ------- 0 0.0 5.0 0 0
+ 0.523333 1 4 cbr 500 ------- 0 0.0 5.0 0 0
- 0.523333 1 4 cbr 500 ------- 0 0.0 5.0 0 0
r 0.546667 1 4 cbr 500 ------- 0 0.0 5.0 0 0
+ 0.546667 4 5 cbr 500 ------- 0 0.0 5.0 0 0
- 0.546667 4 5 cbr 500 ------- 0 0.0 5.0 0 0
+ 0.55 0 1 cbr 500 ------- 0 0.0 5.0 1 1
- 0.55 0 1 cbr 500 ------- 0 0.0 5.0 1 1
r 0.564667 4 5 cbr 500 ------- 0 0.0 5.0 0 0
r 0.573333 0 1 cbr 500 ------- 0 0.0 5.0 1 1
+ 0.573333 1 4 cbr 500 ------- 0 0.0 5.0 1 1
- 0.573333 1 4 cbr 500 ------- 0 0.0 5.0 1 1
r 0.596667 1 4 cbr 500 ------- 0 0.0 5.0 1 1
+ 0.596667 4 5 cbr 500 ------- 0 0.0 5.0 1 1
- 0.596667 4 5 cbr 500 ------- 0 0.0 5.0 1 1
+ 0.6 2 3 cbr 500 ------- 0 2.0 5.0 0 2
- 0.6 2 3 cbr 500 ------- 0 2.0 5.0 0 2
+ 0.6 0 1 cbr 500 ------- 0 0.0 5.0 2 3
- 0.6 0 1 cbr 500 ------- 0 0.0 5.0 2 3
r 0.614667 4 5 cbr 500 ------- 0 0.0 5.0 1 1
r 0.616667 2 3 cbr 500 ------- 0 2.0 5.0 0 2
+ 0.616667 3 5 cbr 500 ------- 0 2.0 5.0 0 2
- 0.616667 3 5 cbr 500 ------- 0 2.0 5.0 0 2
r 0.623333 0 1 cbr 500 ------- 0 0.0 5.0 2 3
+ 0.623333 1 4 cbr 500 ------- 0 0.0 5.0 2 3
- 0.623333 1 4 cbr 500 ------- 0 0.0 5.0 2 3
r 0.630667 3 5 cbr 500 ------- 0 2.0 5.0 0 2
r 0.646667 1 4 cbr 500 ------- 0 0.0 5.0 2 3
+ 0.646667 4 5 cbr 500 ------- 0 0.0 5.0 2 3
- 0.646667 4 5 cbr 500 ------- 0 0.0 5.0 2 3
+ 0.65 2 3 cbr 500 ------- 0 2.0 5.0 1 4
- 0.65 2 3 cbr 500 ------- 0 2.0 5.0 1 4
+ 0.65 0 1 cbr 500 ------- 0 0.0 5.0 3 5
- 0.65 0 1 cbr 500 ------- 0 0.0 5.0 3 5
r 0.664667 4 5 cbr 500 ------- 0 0.0 5.0 2 3
r 0.666667 2 3 cbr 500 ------- 0 2.0 5.0 1 4
+ 0.666667 3 5 cbr 500 ------- 0 2.0 5.0 1 4
- 0.666667 3 5 cbr 500 ------- 0 2.0 5.0 1 4
r 0.673333 0 1 cbr 500 ------- 0 0.0 5.0 3 5
+ 0.673333 1 4 cbr 500 ------- 0 0.0 5.0 3 5
- 0.673333 1 4 cbr 500 ------- 0 0.0 5.0 3 5
r 0.680667 3 5 cbr 500 ------- 0 2.0 5.0 1 4
r 0.696667 1 4 cbr 500 ------- 0 0.0 5.0 3 5
+ 0.696667 4 5 cbr 500 ------- 0 0.0 5.0 3 5
- 0.696667 4 5 cbr 500 ------- 0 0.0 5.0 3 5
+ 0.7 2 3 cbr 500 ------- 0 2.0 5.0 2 6
- 0.7 2 3 cbr 500 ------- 0 2.0 5.0 2 6
+ 0.7 0 1 cbr 500 ------- 0 0.0 5.0 4 7
- 0.7 0 1 cbr 500 ------- 0 0.0 5.0 4 7
r 0.714667 4 5 cbr 500 ------- 0 0.0 5.0 3 5
r 0.716667 2 3 cbr 500 ------- 0 2.0 5.0 2 6
+ 0.716667 3 5 cbr 500 ------- 0 2.0 5.0 2 6
- 0.716667 3 5 cbr 500 ------- 0 2.0 5.0 2 6
r 0.723333 0 1 cbr 500 ------- 0 0.0 5.0 4 7
+ 0.723333 1 4 cbr 500 ------- 0 0.0 5.0 4 7
- 0.723333 1 4 cbr 500 ------- 0 0.0 5.0 4 7
r 0.730667 3 5 cbr 500 ------- 0 2.0 5.0 2 6
r 0.746667 1 4 cbr 500 ------- 0 0.0 5.0 4 7
+ 0.746667 4 5 cbr 500 ------- 0 0.0 5.0 4 7
- 0.746667 4 5 cbr 500 ------- 0 0.0 5.0 4 7
+ 0.75 2 3 cbr 500 ------- 0 2.0 5.0 3 8
- 0.75 2 3 cbr 500 ------- 0 2.0 5.0 3 8
+ 0.75 0 1 cbr 500 ------- 0 0.0 5.0 5 9
- 0.75 0 1 cbr 500 ------- 0 0.0 5.0 5 9
r 0.764667 4 5 cbr 500 ------- 0 0.0 5.0 4 7
r 0.766667 2 3 cbr 500 ------- 0 2.0 5.0 3 8
+ 0.766667 3 5 cbr 500 ------- 0 2.0 5.0 3 8
- 0.766667 3 5 cbr 500 ------- 0 2.0 5.0 3 8
r 0.773333 0 1 cbr 500 ------- 0 0.0 5.0 5 9
+ 0.773333 1 4 cbr 500 ------- 0 0.0 5.0 5 9
- 0.773333 1 4 cbr 500 ------- 0 0.0 5.0 5 9
r 0.780667 3 5 cbr 500 ------- 0 2.0 5.0 3 8
r 0.796667 1 4 cbr 500 ------- 0 0.0 5.0 5 9
+ 0.796667 4 5 cbr 500 ------- 0 0.0 5.0 5 9
- 0.796667 4 5 cbr 500 ------- 0 0.0 5.0 5 9
+ 0.8 2 3 cbr 500 ------- 0 2.0 5.0 4 10
- 0.8 2 3 cbr 500 ------- 0 2.0 5.0 4 10
+ 0.8 0 1 cbr 500 ------- 0 0.0 5.0 6 11
- 0.8 0 1 cbr 500 ------- 0 0.0 5.0 6 11
r 0.814667 4 5 cbr 500 ------- 0 0.0 5.0 5 9
r 0.816667 2 3 cbr 500 ------- 0 2.0 5.0 4 10
+ 0.816667 3 5 cbr 500 ------- 0 2.0 5.0 4 10
- 0.816667 3 5 cbr 500 ------- 0 2.0 5.0 4 10
r 0.823333 0 1 cbr 500 ------- 0 0.0 5.0 6 11
+ 0.823333 1 4 cbr 500 ------- 0 0.0 5.0 6 11
- 0.823333 1 4 cbr 500 ------- 0 0.0 5.0 6 11
r 0.830667 3 5 cbr 500 ------- 0 2.0 5.0 4 10
r 0.846667 1 4 cbr 500 ------- 0 0.0 5.0 6 11
+ 0.846667 4 5 cbr 500 ------- 0 0.0 5.0 6 11
- 0.846667 4 5 cbr 500 ------- 0 0.0 5.0 6 11
+ 0.85 2 3 cbr 500 ------- 0 2.0 5.0 5 12
- 0.85 2 3 cbr 500 ------- 0 2.0 5.0 5 12
+ 0.85 0 1 cbr 500 ------- 0 0.0 5.0 7 13
- 0.85 0 1 cbr 500 ------- 0 0.0 5.0 7 13
r 0.864667 4 5 cbr 500 ------- 0 0.0 5.0 6 11
r 0.866667 2 3 cbr 500 ------- 0 2.0 5.0 5 12
+ 0.866667 3 5 cbr 500 ------- 0 2.0 5.0 5 12
- 0.866667 3 5 cbr 500 ------- 0 2.0 5.0 5 12
r 0.873333 0 1 cbr 500 ------- 0 0.0 5.0 7 13
+ 0.873333 1 4 cbr 500 ------- 0 0.0 5.0 7 13
- 0.873333 1 4 cbr 500 ------- 0 0.0 5.0 7 13
r 0.880667 3 5 cbr 500 ------- 0 2.0 5.0 5 12
r 0.896667 1 4 cbr 500 ------- 0 0.0 5.0 7 13
+ 0.896667 4 5 cbr 500 ------- 0 0.0 5.0 7 13
- 0.896667 4 5 cbr 500 ------- 0 0.0 5.0 7 13
+ 0.9 2 3 cbr 500 ------- 0 2.0 5.0 6 14
- 0.9 2 3 cbr 500 ------- 0 2.0 5.0 6 14
+ 0.9 0 1 cbr 500 ------- 0 0.0 5.0 8 15
- 0.9 0 1 cbr 500 ------- 0 0.0 5.0 8 15
r 0.914667 4 5 cbr 500 ------- 0 0.0 5.0 7 13
r 0.916667 2 3 cbr 500 ------- 0 2.0 5.0 6 14
+ 0.916667 3 5 cbr 500 ------- 0 2.0 5.0 6 14
- 0.916667 3 5 cbr 500 ------- 0 2.0 5.0 6 14
r 0.923333 0 1 cbr 500 ------- 0 0.0 5.0 8 15
+ 0.923333 1 4 cbr 500 ------- 0 0.0 5.0 8 15
- 0.923333 1 4 cbr 500 ------- 0 0.0 5.0 8 15
r 0.930667 3 5 cbr 500 ------- 0 2.0 5.0 6 14
r 0.946667 1 4 cbr 500 ------- 0 0.0 5.0 8 15
+ 0.946667 4 5 cbr 500 ------- 0 0.0 5.0 8 15
- 0.946667 4 5 cbr 500 ------- 0 0.0 5.0 8 15
+ 0.95 2 3 cbr 500 ------- 0 2.0 5.0 7 16
- 0.95 2 3 cbr 500 ------- 0 2.0 5.0 7 16
+ 0.95 0 1 cbr 500 ------- 0 0.0 5.0 9 17
- 0.95 0 1 cbr 500 ------- 0 0.0 5.0 9 17
r 0.964667 4 5 cbr 500 ------- 0 0.0 5.0 8 15
r 0.966667 2 3 cbr 500 ------- 0 2.0 5.0 7 16
+ 0.966667 3 5 cbr 500 ------- 0 2.0 5.0 7 16
- 0.966667 3 5 cbr 500 ------- 0 2.0 5.0 7 16
r 0.973333 0 1 cbr 500 ------- 0 0.0 5.0 9 17
+ 0.973333 1 4 cbr 500 ------- 0 0.0 5.0 9 17
- 0.973333 1 4 cbr 500 ------- 0 0.0 5.0 9 17
r 0.980667 3 5 cbr 500 ------- 0 2.0 5.0 7 16
r 0.996667 1 4 cbr 500 ------- 0 0.0 5.0 9 17
+ 0.996667 4 5 cbr 500 ------- 0 0.0 5.0 9 17
- 0.996667 4 5 cbr 500 ------- 0 0.0 5.0 9 17
v 1 link-down 4 1
v 1 link-down 4 1
v 1 link-down 1 4
v 1 link-down 1 4
+ 1 2 3 cbr 500 ------- 0 2.0 5.0 8 18
- 1 2 3 cbr 500 ------- 0 2.0 5.0 8 18
+ 1 0 1 cbr 500 ------- 0 0.0 5.0 10 19
- 1 0 1 cbr 500 ------- 0 0.0 5.0 10 19
r 1.014667 4 5 cbr 500 ------- 0 0.0 5.0 9 17
r 1.016667 2 3 cbr 500 ------- 0 2.0 5.0 8 18
+ 1.016667 3 5 cbr 500 ------- 0 2.0 5.0 8 18
- 1.016667 3 5 cbr 500 ------- 0 2.0 5.0 8 18
r 1.023333 0 1 cbr 500 ------- 0 0.0 5.0 10 19
r 1.030667 3 5 cbr 500 ------- 0 2.0 5.0 8 18
+ 1.05 2 3 cbr 500 ------- 0 2.0 5.0 9 20
- 1.05 2 3 cbr 500 ------- 0 2.0 5.0 9 20
+ 1.05 0 1 cbr 500 ------- 0 0.0 5.0 11 21
- 1.05 0 1 cbr 500 ------- 0 0.0 5.0 11 21
r 1.066667 2 3 cbr 500 ------- 0 2.0 5.0 9 20
+ 1.066667 3 5 cbr 500 ------- 0 2.0 5.0 9 20
- 1.066667 3 5 cbr 500 ------- 0 2.0 5.0 9 20
r 1.073333 0 1 cbr 500 ------- 0 0.0 5.0 11 21
r 1.080667 3 5 cbr 500 ------- 0 2.0 5.0 9 20
+ 1.1 2 3 cbr 500 ------- 0 2.0 5.0 10 22
- 1.1 2 3 cbr 500 ------- 0 2.0 5.0 10 22
+ 1.1 0 1 cbr 500 ------- 0 0.0 5.0 12 23
- 1.1 0 1 cbr 500 ------- 0 0.0 5.0 12 23
r 1.116667 2 3 cbr 500 ------- 0 2.0 5.0 10 22
+ 1.116667 3 5 cbr 500 ------- 0 2.0 5.0 10 22
- 1.116667 3 5 cbr 500 ------- 0 2.0 5.0 10 22
r 1.123333 0 1 cbr 500 ------- 0 0.0 5.0 12 23
r 1.130667 3 5 cbr 500 ------- 0 2.0 5.0 10 22
+ 1.15 2 3 cbr 500 ------- 0 2.0 5.0 11 24
- 1.15 2 3 cbr 500 ------- 0 2.0 5.0 11 24
+ 1.15 0 1 cbr 500 ------- 0 0.0 5.0 13 25
- 1.15 0 1 cbr 500 ------- 0 0.0 5.0 13 25
r 1.166667 2 3 cbr 500 ------- 0 2.0 5.0 11 24
+ 1.166667 3 5 cbr 500 ------- 0 2.0 5.0 11 24
- 1.166667 3 5 cbr 500 ------- 0 2.0 5.0 11 24
r 1.173333 0 1 cbr 500 ------- 0 0.0 5.0 13 25
r 1.180667 3 5 cbr 500 ------- 0 2.0 5.0 11 24
v 1.2 link-up 4 1
v 1.2 link-up 4 1
v 1.2 link-up 1 4
v 1.2 link-up 1 4
+ 1.2 2 3 cbr 500 ------- 0 2.0 5.0 12 26
- 1.2 2 3 cbr 500 ------- 0 2.0 5.0 12 26
+ 1.2 0 1 cbr 500 ------- 0 0.0 5.0 14 27
- 1.2 0 1 cbr 500 ------- 0 0.0 5.0 14 27
r 1.216667 2 3 cbr 500 ------- 0 2.0 5.0 12 26
+ 1.216667 3 5 cbr 500 ------- 0 2.0 5.0 12 26
- 1.216667 3 5 cbr 500 ------- 0 2.0 5.0 12 26
r 1.223333 0 1 cbr 500 ------- 0 0.0 5.0 14 27
+ 1.223333 1 4 cbr 500 ------- 0 0.0 5.0 14 27
- 1.223333 1 4 cbr 500 ------- 0 0.0 5.0 14 27
r 1.230667 3 5 cbr 500 ------- 0 2.0 5.0 12 26
r 1.246667 1 4 cbr 500 ------- 0 0.0 5.0 14 27
+ 1.246667 4 5 cbr 500 ------- 0 0.0 5.0 14 27
- 1.246667 4 5 cbr 500 ------- 0 0.0 5.0 14 27
+ 1.25 2 3 cbr 500 ------- 0 2.0 5.0 13 28
- 1.25 2 3 cbr 500 ------- 0 2.0 5.0 13 28
+ 1.25 0 1 cbr 500 ------- 0 0.0 5.0 15 29
- 1.25 0 1 cbr 500 ------- 0 0.0 5.0 15 29
r 1.264667 4 5 cbr 500 ------- 0 0.0 5.0 14 27
r 1.266667 2 3 cbr 500 ------- 0 2.0 5.0 13 28
+ 1.266667 3 5 cbr 500 ------- 0 2.0 5.0 13 28
- 1.266667 3 5 cbr 500 ------- 0 2.0 5.0 13 28
r 1.273333 0 1 cbr 500 ------- 0 0.0 5.0 15 29
+ 1.273333 1 4 cbr 500 ------- 0 0.0 5.0 15 29
- 1.273333 1 4 cbr 500 ------- 0 0.0 5.0 15 29
r 1.280667 3 5 cbr 500 ------- 0 2.0 5.0 13 28
r 1.296667 1 4 cbr 500 ------- 0 0.0 5.0 15 29
+ 1.296667 4 5 cbr 500 ------- 0 0.0 5.0 15 29
- 1.296667 4 5 cbr 500 ------- 0 0.0 5.0 15 29
+ 1.3 2 3 cbr 500 ------- 0 2.0 5.0 14 30
- 1.3 2 3 cbr 500 ------- 0 2.0 5.0 14 30
+ 1.3 0 1 cbr 500 ------- 0 0.0 5.0 16 31
- 1.3 0 1 cbr 500 ------- 0 0.0 5.0 16 31
r 1.314667 4 5 cbr 500 ------- 0 0.0 5.0 15 29
r 1.316667 2 3 cbr 500 ------- 0 2.0 5.0 14 30
+ 1.316667 3 5 cbr 500 ------- 0 2.0 5.0 14 30
- 1.316667 3 5 cbr 500 ------- 0 2.0 5.0 14 30
r 1.323333 0 1 cbr 500 ------- 0 0.0 5.0 16 31
+ 1.323333 1 4 cbr 500 ------- 0 0.0 5.0 16 31
- 1.323333 1 4 cbr 500 ------- 0 0.0 5.0 16 31
r 1.330667 3 5 cbr 500 ------- 0 2.0 5.0 14 30
r 1.346667 1 4 cbr 500 ------- 0 0.0 5.0 16 31
+ 1.346667 4 5 cbr 500 ------- 0 0.0 5.0 16 31
- 1.346667 4 5 cbr 500 ------- 0 0.0 5.0 16 31
+ 1.35 2 3 cbr 500 ------- 0 2.0 5.0 15 32
- 1.35 2 3 cbr 500 ------- 0 2.0 5.0 15 32
+ 1.35 0 1 cbr 500 ------- 0 0.0 5.0 17 33
- 1.35 0 1 cbr 500 ------- 0 0.0 5.0 17 33
r 1.364667 4 5 cbr 500 ------- 0 0.0 5.0 16 31
r 1.366667 2 3 cbr 500 ------- 0 2.0 5.0 15 32
+ 1.366667 3 5 cbr 500 ------- 0 2.0 5.0 15 32
- 1.366667 3 5 cbr 500 ------- 0 2.0 5.0 15 32
r 1.373333 0 1 cbr 500 ------- 0 0.0 5.0 17 33
+ 1.373333 1 4 cbr 500 ------- 0 0.0 5.0 17 33
- 1.373333 1 4 cbr 500 ------- 0 0.0 5.0 17 33
r 1.380667 3 5 cbr 500 ------- 0 2.0 5.0 15 32
r 1.396667 1 4 cbr 500 ------- 0 0.0 5.0 17 33
+ 1.396667 4 5 cbr 500 ------- 0 0.0 5.0 17 33
- 1.396667 4 5 cbr 500 ------- 0 0.0 5.0 17 33
+ 1.4 2 3 cbr 500 ------- 0 2.0 5.0 16 34
- 1.4 2 3 cbr 500 ------- 0 2.0 5.0 16 34
+ 1.4 0 1 cbr 500 ------- 0 0.0 5.0 18 35
- 1.4 0 1 cbr 500 ------- 0 0.0 5.0 18 35
r 1.414667 4 5 cbr 500 ------- 0 0.0 5.0 17 33
r 1.416667 2 3 cbr 500 ------- 0 2.0 5.0 16 34
+ 1.416667 3 5 cbr 500 ------- 0 2.0 5.0 16 34
- 1.416667 3 5 cbr 500 ------- 0 2.0 5.0 16 34
r 1.423333 0 1 cbr 500 ------- 0 0.0 5.0 18 35
+ 1.423333 1 4 cbr 500 ------- 0 0.0 5.0 18 35
- 1.423333 1 4 cbr 500 ------- 0 0.0 5.0 18 35
r 1.430667 3 5 cbr 500 ------- 0 2.0 5.0 16 34
r 1.446667 1 4 cbr 500 ------- 0 0.0 5.0 18 35
+ 1.446667 4 5 cbr 500 ------- 0 0.0 5.0 18 35
- 1.446667 4 5 cbr 500 ------- 0 0.0 5.0 18 35
+ 1.45 2 3 cbr 500 ------- 0 2.0 5.0 17 36
- 1.45 2 3 cbr 500 ------- 0 2.0 5.0 17 36
+ 1.45 0 1 cbr 500 ------- 0 0.0 5.0 19 37
- 1.45 0 1 cbr 500 ------- 0 0.0 5.0 19 37
r 1.464667 4 5 cbr 500 ------- 0 0.0 5.0 18 35
r 1.466667 2 3 cbr 500 ------- 0 2.0 5.0 17 36
+ 1.466667 3 5 cbr 500 ------- 0 2.0 5.0 17 36
- 1.466667 3 5 cbr 500 ------- 0 2.0 5.0 17 36
r 1.473333 0 1 cbr 500 ------- 0 0.0 5.0 19 37
+ 1.473333 1 4 cbr 500 ------- 0 0.0 5.0 19 37
- 1.473333 1 4 cbr 500 ------- 0 0.0 5.0 19 37
r 1.480667 3 5 cbr 500 ------- 0 2.0 5.0 17 36
r 1.496667 1 4 cbr 500 ------- 0 0.0 5.0 19 37
+ 1.496667 4 5 cbr 500 ------- 0 0.0 5.0 19 37
- 1.496667 4 5 cbr 500 ------- 0 0.0 5.0 19 37
+ 1.5 2 3 cbr 500 ------- 0 2.0 5.0 18 38
- 1.5 2 3 cbr 500 ------- 0 2.0 5.0 18 38
r 1.514667 4 5 cbr 500 ------- 0 0.0 5.0 19 37
r 1.516667 2 3 cbr 500 ------- 0 2.0 5.0 18 38
+ 1.516667 3 5 cbr 500 ------- 0 2.0 5.0 18 38
- 1.516667 3 5 cbr 500 ------- 0 2.0 5.0 18 38
r 1.530667 3 5 cbr 500 ------- 0 2.0 5.0 18 38
+ 1.55 2 3 cbr 500 ------- 0 2.0 5.0 19 39
- 1.55 2 3 cbr 500 ------- 0 2.0 5.0 19 39
r 1.566667 2 3 cbr 500 ------- 0 2.0 5.0 19 39
+ 1.566667 3 5 cbr 500 ------- 0 2.0 5.0 19 39
- 1.566667 3 5 cbr 500 ------- 0 2.0 5.0 19 39
r 1.580667 3 5 cbr 500 ------- 0 2.0 5.0 19 39
